+ 0 /NodeList/0/DeviceList/1/$ns3::PointToPointNetDevice/TxQueue/Enqueue ns3::PppHeader (Point-to-Point Protocol: IP (0x0021)) ns3::Ipv4Header (tos 0x0 DSCP Default ECN Not-ECT ttl 64 id 0 protocol 6 offset (bytes) 0 flags [none] length: 56 10.0.0.1 > 10.0.0.2) ns3::TcpHeader (49153 > 9 [SYN] Seq=0 Ack=0 Win=65535 ns3::TcpOptionTS(0;0) ns3::TcpOptionWinScale(2) ns3::TcpOptionSackPermitted([sack_perm]) ns3::TcpOptionEnd(EOL))
- 0 /NodeList/0/DeviceList/1/$ns3::PointToPointNetDevice/TxQueue/Dequeue ns3::PppHeader (Point-to-Point Protocol: IP (0x0021)) ns3::Ipv4Header (tos 0x0 DSCP Default ECN Not-ECT ttl 64 id 0 protocol 6 offset (bytes) 0 flags [none] length: 56 10.0.0.1 > 10.0.0.2) ns3::TcpHeader (49153 > 9 [SYN] Seq=0 Ack=0 Win=65535 ns3::TcpOptionTS(0;0) ns3::TcpOptionWinScale(2) ns3::TcpOptionSackPermitted([sack_perm]) ns3::TcpOptionEnd(EOL))
+ 0 /NodeList/1/DeviceList/1/$ns3::PointToPointNetDevice/TxQueue/Enqueue ns3::PppHeader (Point-to-Point Protocol: IP (0x0021)) ns3::Ipv4Header (tos 0x0 DSCP Default ECN Not-ECT ttl 64 id 0 protocol 6 offset (bytes) 0 flags [none] length: 56 10.0.0.2 > 10.0.0.1) ns3::TcpHeader (49153 > 9 [SYN] Seq=0 Ack=0 Win=65535 ns3::TcpOptionTS(0;0) ns3::TcpOptionWinScale(2) ns3::TcpOptionSackPermitted([sack_perm]) ns3::TcpOptionEnd(EOL))
- 0 /NodeList/1/DeviceList/1/$ns3::PointToPointNetDevice/TxQueue/Dequeue ns3::PppHeader (Point-to-Point Protocol: IP (0x0021)) ns3::Ipv4Header (tos 0x0 DSCP Default ECN Not-ECT ttl 64 id 0 protocol 6 offset (bytes) 0 flags [none] length: 56 10.0.0.2 > 10.0.0.1) ns3::TcpHeader (49153 > 9 [SYN] Seq=0 Ack=0 Win=65535 ns3::TcpOptionTS(0;0) ns3::TcpOptionWinScale(2) ns3::TcpOptionSackPermitted([sack_perm]) ns3::TcpOptionEnd(EOL))
r 0.000464 /NodeList/1/DeviceList/1/$ns3::PointToPointNetDevice/MacRx ns3::PppHeader (Point-to-Point Protocol: IP (0x0021)) ns3::Ipv4Header (tos 0x0 DSCP Default ECN Not-ECT ttl 64 id 0 protocol 6 offset (bytes) 0 flags [none] length: 56 10.0.0.1 > 10.0.0.2) ns3::TcpHeader (49153 > 9 [SYN] Seq=0 Ack=0 Win=65535 ns3::TcpOptionTS(0;0) ns3::TcpOptionWinScale(2) ns3::TcpOptionSackPermitted([sack_perm]) ns3::TcpOptionEnd(EOL))
r 0.000464 /NodeList/0/DeviceList/1/$ns3::PointToPointNetDevice/MacRx ns3::PppHeader (Point-to-Point Protocol: IP (0x0021)) ns3::Ipv4Header (tos 0x0 DSCP Default ECN Not-ECT ttl 64 id 0 protocol 6 offset (bytes) 0 flags [none] length: 56 10.0.0.2 > 10.0.0.1) ns3::TcpHeader (49153 > 9 [SYN] Seq=0 Ack=0 Win=65535 ns3::TcpOptionTS(0;0) ns3::TcpOptionWinScale(2) ns3::TcpOptionSackPermitted([sack_perm]) ns3::TcpOptionEnd(EOL))
+ 0.000464 /NodeList/1/DeviceList/1/$ns3::PointToPointNetDevice/TxQueue/Enqueue ns3::PppHeader (Point-to-Point Protocol: IP (0x0021)) ns3::Ipv4Header (tos 0x0 DSCP Default ECN Not-ECT ttl 64 id 1 protocol 6 offset (bytes) 0 flags [none] length: 56 10.0.0.2 > 10.0.0.1) ns3::TcpHeader (9 > 49153 [SYN|ACK] Seq=0 Ack=1 Win=65535 ns3::TcpOptionTS(0;0) ns3::TcpOptionWinScale(2) ns3::TcpOptionSackPermitted([sack_perm]) ns3::TcpOptionEnd(EOL))
- 0.000464 /NodeList/1/DeviceList/1/$ns3::PointToPointNetDevice/TxQueue/Dequeue ns3::PppHeader (Point-to-Point Protocol: IP (0x0021)) ns3::Ipv4Header (tos 0x0 DSCP Default ECN Not-ECT ttl 64 id 1 protocol 6 offset (bytes) 0 flags [none] length: 56 10.0.0.2 > 10.0.0.1) ns3::TcpHeader (9 > 49153 [SYN|ACK] Seq=0 Ack=1 Win=65535 ns3::TcpOptionTS(0;0) ns3::TcpOptionWinScale(2) ns3::TcpOptionSackPermitted([sack_perm]) ns3::TcpOptionEnd(EOL))
+ 0.000464 /NodeList/0/DeviceList/1/$ns3::PointToPointNetDevice/TxQueue/Enqueue ns3::PppHeader (Point-to-Point Protocol: IP (0x0021)) ns3::Ipv4Header (tos 0x0 DSCP Default ECN Not-ECT ttl 64 id 1 protocol 6 offset (bytes) 0 flags [none] length: 56 10.0.0.1 > 10.0.0.2) ns3::TcpHeader (9 > 49153 [SYN|ACK] Seq=0 Ack=1 Win=65535 ns3::TcpOptionTS(0;0) ns3::TcpOptionWinScale(2) ns3::TcpOptionSackPermitted([sack_perm]) ns3::TcpOptionEnd(EOL))
- 0.000464 /NodeList/0/DeviceList/1/$ns3::PointToPointNetDevice/TxQueue/Dequeue ns3::PppHeader (Point-to-Point Protocol: IP (0x0021)) ns3::Ipv4Header (tos 0x0 DSCP Default ECN Not-ECT ttl 64 id 1 protocol 6 offset (bytes) 0 flags [none] length: 56 10.0.0.1 > 10.0.0.2) ns3::TcpHeader (9 > 49153 [SYN|ACK] Seq=0 Ack=1 Win=65535 ns3::TcpOptionTS(0;0) ns3::TcpOptionWinScale(2) ns3::TcpOptionSackPermitted([sack_perm]) ns3::TcpOptionEnd(EOL))
r 0.000928 /NodeList/0/DeviceList/1/$ns3::PointToPointNetDevice/MacRx ns3::PppHeader (Point-to-Point Protocol: IP (0x0021)) ns3::Ipv4Header (tos 0x0 DSCP Default ECN Not-ECT ttl 64 id 1 protocol 6 offset (bytes) 0 flags [none] length: 56 10.0.0.2 > 10.0.0.1) ns3::TcpHeader (9 > 49153 [SYN|ACK] Seq=0 Ack=1 Win=65535 ns3::TcpOptionTS(0;0) ns3::TcpOptionWinScale(2) ns3::TcpOptionSackPermitted([sack_perm]) ns3::TcpOptionEnd(EOL))
+ 0.000928 /NodeList/0/DeviceList/1/$ns3::PointToPointNetDevice/TxQueue/Enqueue ns3::PppHeader (Point-to-Point Protocol: IP (0x0021)) ns3::Ipv4Header (tos 0x0 DSCP Default ECN Not-ECT ttl 64 id 2 protocol 6 offset (bytes) 0 flags [none] length: 52 10.0.0.1 > 10.0.0.2) ns3::TcpHeader (49153 > 9 [ACK] Seq=1 Ack=1 Win=32768 ns3::TcpOptionTS(0;0) ns3::TcpOptionEnd(EOL))
+ 0.000928 /NodeList/0/DeviceList/1/$ns3::PointToPointNetDevice/TxQueue/Enqueue ns3::PppHeader (Point-to-Point Protocol: IP (0x0021)) ns3::Ipv4Header (tos 0x0 DSCP Default ECN Not-ECT ttl 64 id 3 protocol 6 offset (bytes) 0 flags [none] length: 588 10.0.0.1 > 10.0.0.2) ns3::TcpHeader (49153 > 9 [ACK] Seq=1 Ack=1 Win=32768 ns3::TcpOptionTS(0;0) ns3::TcpOptionEnd(EOL)) Payload (size=512) Payload Fragment [0:24]
+ 0.000928 /NodeList/0/DeviceList/1/$ns3::PointToPointNetDevice/TxQueue/Enqueue ns3::PppHeader (Point-to-Point Protocol: IP (0x0021)) ns3::Ipv4Header (tos 0x0 DSCP Default ECN Not-ECT ttl 64 id 4 protocol 6 offset (bytes) 0 flags [none] length: 540 10.0.0.1 > 10.0.0.2) ns3::TcpHeader (49153 > 9 [FIN|ACK] Seq=537 Ack=1 Win=32768 ns3::TcpOptionTS(0;0) ns3::TcpOptionEnd(EOL)) Payload Fragment [24:512]
- 0.000928 /NodeList/0/DeviceList/1/$ns3::PointToPointNetDevice/TxQueue/Dequeue ns3::PppHeader (Point-to-Point Protocol: IP (0x0021)) ns3::Ipv4Header (tos 0x0 DSCP Default ECN Not-ECT ttl 64 id 2 protocol 6 offset (bytes) 0 flags [none] length: 52 10.0.0.1 > 10.0.0.2) ns3::TcpHeader (49153 > 9 [ACK] Seq=1 Ack=1 Win=32768 ns3::TcpOptionTS(0;0) ns3::TcpOptionEnd(EOL))
r 0.000928 /NodeList/1/DeviceList/1/$ns3::PointToPointNetDevice/MacRx ns3::PppHeader (Point-to-Point Protocol: IP (0x0021)) ns3::Ipv4Header (tos 0x0 DSCP Default ECN Not-ECT ttl 64 id 1 protocol 6 offset (bytes) 0 flags [none] length: 56 10.0.0.1 > 10.0.0.2) ns3::TcpHeader (9 > 49153 [SYN|ACK] Seq=0 Ack=1 Win=65535 ns3::TcpOptionTS(0;0) ns3::TcpOptionWinScale(2) ns3::TcpOptionSackPermitted([sack_perm]) ns3::TcpOptionEnd(EOL))
+ 0.000928 /NodeList/1/DeviceList/1/$ns3::PointToPointNetDevice/TxQueue/Enqueue ns3::PppHeader (Point-to-Point Protocol: IP (0x0021)) ns3::Ipv4Header (tos 0x0 DSCP Default ECN Not-ECT ttl 64 id 2 protocol 6 offset (bytes) 0 flags [none] length: 52 10.0.0.2 > 10.0.0.1) ns3::TcpHeader (49153 > 9 [ACK] Seq=1 Ack=1 Win=32768 ns3::TcpOptionTS(0;0) ns3::TcpOptionEnd(EOL))
- 0.000928 /NodeList/1/DeviceList/1/$ns3::PointToPointNetDevice/TxQueue/Dequeue ns3::PppHeader (Point-to-Point Protocol: IP (0x0021)) ns3::Ipv4Header (tos 0x0 DSCP Default ECN Not-ECT ttl 64 id 2 protocol 6 offset (bytes) 0 flags [none] length: 52 10.0.0.2 > 10.0.0.1) ns3::TcpHeader (49153 > 9 [ACK] Seq=1 Ack=1 Win=32768 ns3::TcpOptionTS(0;0) ns3::TcpOptionEnd(EOL))
+ 0.000928 /NodeList/1/DeviceList/1/$ns3::PointToPointNetDevice/TxQueue/Enqueue ns3::PppHeader (Point-to-Point Protocol: IP (0x0021)) ns3::Ipv4Header (tos 0x0 DSCP Default ECN Not-ECT ttl 64 id 3 protocol 6 offset (bytes) 0 flags [none] length: 588 10.0.0.2 > 10.0.0.1) ns3::TcpHeader (49153 > 9 [ACK] Seq=1 Ack=1 Win=32768 ns3::TcpOptionTS(0;0) ns3::TcpOptionEnd(EOL)) Payload (size=512) Payload Fragment [0:24]
+ 0.000928 /NodeList/1/DeviceList/1/$ns3::PointToPointNetDevice/TxQueue/Enqueue ns3::PppHeader (Point-to-Point Protocol: IP (0x0021)) ns3::Ipv4Header (tos 0x0 DSCP Default ECN Not-ECT ttl 64 id 4 protocol 6 offset (bytes) 0 flags [none] length: 540 10.0.0.2 > 10.0.0.1) ns3::TcpHeader (49153 > 9 [FIN|ACK] Seq=537 Ack=1 Win=32768 ns3::TcpOptionTS(0;0) ns3::TcpOptionEnd(EOL)) Payload Fragment [24:512]
- 0.00136 /NodeList/0/DeviceList/1/$ns3::PointToPointNetDevice/TxQueue/Dequeue ns3::PppHeader (Point-to-Point Protocol: IP (0x0021)) ns3::Ipv4Header (tos 0x0 DSCP Default ECN Not-ECT ttl 64 id 3 protocol 6 offset (bytes) 0 flags [none] length: 588 10.0.0.1 > 10.0.0.2) ns3::TcpHeader (49153 > 9 [ACK] Seq=1 Ack=1 Win=32768 ns3::TcpOptionTS(0;0) ns3::TcpOptionEnd(EOL)) Payload (size=512) Payload Fragment [0:24]
r 0.00136 /NodeList/1/DeviceList/1/$ns3::PointToPointNetDevice/MacRx ns3::PppHeader (Point-to-Point Protocol: IP (0x0021)) ns3::Ipv4Header (tos 0x0 DSCP Default ECN Not-ECT ttl 64 id 2 protocol 6 offset (bytes) 0 flags [none] length: 52 10.0.0.1 > 10.0.0.2) ns3::TcpHeader (49153 > 9 [ACK] Seq=1 Ack=1 Win=32768 ns3::TcpOptionTS(0;0) ns3::TcpOptionEnd(EOL))
- 0.00136 /NodeList/1/DeviceList/1/$ns3::PointToPointNetDevice/TxQueue/Dequeue ns3::PppHeader (Point-to-Point Protocol: IP (0x0021)) ns3::Ipv4Header (tos 0x0 DSCP Default ECN Not-ECT ttl 64 id 3 protocol 6 offset (bytes) 0 flags [none] length: 588 10.0.0.2 > 10.0.0.1) ns3::TcpHeader (49153 > 9 [ACK] Seq=1 Ack=1 Win=32768 ns3::TcpOptionTS(0;0) ns3::TcpOptionEnd(EOL)) Payload (size=512) Payload Fragment [0:24]
r 0.00136 /NodeList/0/DeviceList/1/$ns3::PointToPointNetDevice/MacRx ns3::PppHeader (Point-to-Point Protocol: IP (0x0021)) ns3::Ipv4Header (tos 0x0 DSCP Default ECN Not-ECT ttl 64 id 2 protocol 6 offset (bytes) 0 flags [none] length: 52 10.0.0.2 > 10.0.0.1) ns3::TcpHeader (49153 > 9 [ACK] Seq=1 Ack=1 Win=32768 ns3::TcpOptionTS(0;0) ns3::TcpOptionEnd(EOL))
- 0.00608 /NodeList/0/DeviceList/1/$ns3::PointToPointNetDevice/TxQueue/Dequeue ns3::PppHeader (Point-to-Point Protocol: IP (0x0021)) ns3::Ipv4Header (tos 0x0 DSCP Default ECN Not-ECT ttl 64 id 4 protocol 6 offset (bytes) 0 flags [none] length: 540 10.0.0.1 > 10.0.0.2) ns3::TcpHeader (49153 > 9 [FIN|ACK] Seq=537 Ack=1 Win=32768 ns3::TcpOptionTS(0;0) ns3::TcpOptionEnd(EOL)) Payload Fragment [24:512]
r 0.00608 /NodeList/1/DeviceList/1/$ns3::PointToPointNetDevice/MacRx ns3::PppHeader (Point-to-Point Protocol: IP (0x0021)) ns3::Ipv4Header (tos 0x0 DSCP Default ECN Not-ECT ttl 64 id 3 protocol 6 offset (bytes) 0 flags [none] length: 588 10.0.0.1 > 10.0.0.2) ns3::TcpHeader (49153 > 9 [ACK] Seq=1 Ack=1 Win=32768 ns3::TcpOptionTS(0;0) ns3::TcpOptionEnd(EOL)) Payload (size=512) Payload Fragment [0:24]
+ 0.00608 /NodeList/1/DeviceList/1/$ns3::PointToPointNetDevice/TxQueue/Enqueue ns3::PppHeader (Point-to-Point Protocol: IP (0x0021)) ns3::Ipv4Header (tos 0x0 DSCP Default ECN Not-ECT ttl 64 id 5 protocol 6 offset (bytes) 0 flags [none] length: 52 10.0.0.2 > 10.0.0.1) ns3::TcpHeader (9 > 49153 [ACK] Seq=1 Ack=537 Win=32634 ns3::TcpOptionTS(6;0) ns3::TcpOptionEnd(EOL))
- 0.00608 /NodeList/1/DeviceList/1/$ns3::PointToPointNetDevice/TxQueue/Dequeue ns3::PppHeader (Point-to-Point Protocol: IP (0x0021)) ns3::Ipv4Header (tos 0x0 DSCP Default ECN Not-ECT ttl 64 id 4 protocol 6 offset (bytes) 0 flags [none] length: 540 10.0.0.2 > 10.0.0.1) ns3::TcpHeader (49153 > 9 [FIN|ACK] Seq=537 Ack=1 Win=32768 ns3::TcpOptionTS(0;0) ns3::TcpOptionEnd(EOL)) Payload Fragment [24:512]
r 0.00608 /NodeList/0/DeviceList/1/$ns3::PointToPointNetDevice/MacRx ns3::PppHeader (Point-to-Point Protocol: IP (0x0021)) ns3::Ipv4Header (tos 0x0 DSCP Default ECN Not-ECT ttl 64 id 3 protocol 6 offset (bytes) 0 flags [none] length: 588 10.0.0.2 > 10.0.0.1) ns3::TcpHeader (49153 > 9 [ACK] Seq=1 Ack=1 Win=32768 ns3::TcpOptionTS(0;0) ns3::TcpOptionEnd(EOL)) Payload (size=512) Payload Fragment [0:24]
+ 0.00608 /NodeList/0/DeviceList/1/$ns3::PointToPointNetDevice/TxQueue/Enqueue ns3::PppHeader (Point-to-Point Protocol: IP (0x0021)) ns3::Ipv4Header (tos 0x0 DSCP Default ECN Not-ECT ttl 64 id 5 protocol 6 offset (bytes) 0 flags [none] length: 52 10.0.0.1 > 10.0.0.2) ns3::TcpHeader (9 > 49153 [ACK] Seq=1 Ack=537 Win=32634 ns3::TcpOptionTS(6;0) ns3::TcpOptionEnd(EOL))
- 0.010416 /NodeList/0/DeviceList/1/$ns3::PointToPointNetDevice/TxQueue/Dequeue ns3::PppHeader (Point-to-Point Protocol: IP (0x0021)) ns3::Ipv4Header (tos 0x0 DSCP Default ECN Not-ECT ttl 64 id 5 protocol 6 offset (bytes) 0 flags [none] length: 52 10.0.0.1 > 10.0.0.2) ns3::TcpHeader (9 > 49153 [ACK] Seq=1 Ack=537 Win=32634 ns3::TcpOptionTS(6;0) ns3::TcpOptionEnd(EOL))
r 0.010416 /NodeList/1/DeviceList/1/$ns3::PointToPointNetDevice/MacRx ns3::PppHeader (Point-to-Point Protocol: IP (0x0021)) ns3::Ipv4Header (tos 0x0 DSCP Default ECN Not-ECT ttl 64 id 4 protocol 6 offset (bytes) 0 flags [none] length: 540 10.0.0.1 > 10.0.0.2) ns3::TcpHeader (49153 > 9 [FIN|ACK] Seq=537 Ack=1 Win=32768 ns3::TcpOptionTS(0;0) ns3::TcpOptionEnd(EOL)) Payload Fragment [24:512]
+ 0.010416 /NodeList/1/DeviceList/1/$ns3::PointToPointNetDevice/TxQueue/Enqueue ns3::PppHeader (Point-to-Point Protocol: IP (0x0021)) ns3::Ipv4Header (tos 0x0 DSCP Default ECN Not-ECT ttl 64 id 6 protocol 6 offset (bytes) 0 flags [none] length: 52 10.0.0.2 > 10.0.0.1) ns3::TcpHeader (9 > 49153 [ACK] Seq=1 Ack=1026 Win=32634 ns3::TcpOptionTS(10;0) ns3::TcpOptionEnd(EOL))
+ 0.010416 /NodeList/1/DeviceList/1/$ns3::PointToPointNetDevice/TxQueue/Enqueue ns3::PppHeader (Point-to-Point Protocol: IP (0x0021)) ns3::Ipv4Header (tos 0x0 DSCP Default ECN Not-ECT ttl 64 id 7 protocol 6 offset (bytes) 0 flags [none] length: 52 10.0.0.2 > 10.0.0.1) ns3::TcpHeader (9 > 49153 [ACK] Seq=1 Ack=1026 Win=32634 ns3::TcpOptionTS(10;0) ns3::TcpOptionEnd(EOL))
- 0.010416 /NodeList/1/DeviceList/1/$ns3::PointToPointNetDevice/TxQueue/Dequeue ns3::PppHeader (Point-to-Point Protocol: IP (0x0021)) ns3::Ipv4Header (tos 0x0 DSCP Default ECN Not-ECT ttl 64 id 5 protocol 6 offset (bytes) 0 flags [none] length: 52 10.0.0.2 > 10.0.0.1) ns3::TcpHeader (9 > 49153 [ACK] Seq=1 Ack=537 Win=32634 ns3::TcpOptionTS(6;0) ns3::TcpOptionEnd(EOL))
r 0.010416 /NodeList/0/DeviceList/1/$ns3::PointToPointNetDevice/MacRx ns3::PppHeader (Point-to-Point Protocol: IP (0x0021)) ns3::Ipv4Header (tos 0x0 DSCP Default ECN Not-ECT ttl 64 id 4 protocol 6 offset (bytes) 0 flags [none] length: 540 10.0.0.2 > 10.0.0.1) ns3::TcpHeader (49153 > 9 [FIN|ACK] Seq=537 Ack=1 Win=32768 ns3::TcpOptionTS(0;0) ns3::TcpOptionEnd(EOL)) Payload Fragment [24:512]
+ 0.010416 /NodeList/0/DeviceList/1/$ns3::PointToPointNetDevice/TxQueue/Enqueue ns3::PppHeader (Point-to-Point Protocol: IP (0x0021)) ns3::Ipv4Header (tos 0x0 DSCP Default ECN Not-ECT ttl 64 id 6 protocol 6 offset (bytes) 0 flags [none] length: 52 10.0.0.1 > 10.0.0.2) ns3::TcpHeader (9 > 49153 [ACK] Seq=1 Ack=1026 Win=32634 ns3::TcpOptionTS(10;0) ns3::TcpOptionEnd(EOL))
+ 0.010416 /NodeList/0/DeviceList/1/$ns3::PointToPointNetDevice/TxQueue/Enqueue ns3::PppHeader (Point-to-Point Protocol: IP (0x0021)) ns3::Ipv4Header (tos 0x0 DSCP Default ECN Not-ECT ttl 64 id 7 protocol 6 offset (bytes) 0 flags [none] length: 52 10.0.0.1 > 10.0.0.2) ns3::TcpHeader (9 > 49153 [ACK] Seq=1 Ack=1026 Win=32634 ns3::TcpOptionTS(10;0) ns3::TcpOptionEnd(EOL))
- 0.010848 /NodeList/0/DeviceList/1/$ns3::PointToPointNetDevice/TxQueue/Dequeue ns3::PppHeader (Point-to-Point Protocol: IP (0x0021)) ns3::Ipv4Header (tos 0x0 DSCP Default ECN Not-ECT ttl 64 id 6 protocol 6 offset (bytes) 0 flags [none] length: 52 10.0.0.1 > 10.0.0.2) ns3::TcpHeader (9 > 49153 [ACK] Seq=1 Ack=1026 Win=32634 ns3::TcpOptionTS(10;0) ns3::TcpOptionEnd(EOL))
r 0.010848 /NodeList/1/DeviceList/1/$ns3::PointToPointNetDevice/MacRx ns3::PppHeader (Point-to-Point Protocol: IP (0x0021)) ns3::Ipv4Header (tos 0x0 DSCP Default ECN Not-ECT ttl 64 id 5 protocol 6 offset (bytes) 0 flags [none] length: 52 10.0.0.1 > 10.0.0.2) ns3::TcpHeader (9 > 49153 [ACK] Seq=1 Ack=537 Win=32634 ns3::TcpOptionTS(6;0) ns3::TcpOptionEnd(EOL))
- 0.010848 /NodeList/1/DeviceList/1/$ns3::PointToPointNetDevice/TxQueue/Dequeue ns3::PppHeader (Point-to-Point Protocol: IP (0x0021)) ns3::Ipv4Header (tos 0x0 DSCP Default ECN Not-ECT ttl 64 id 6 protocol 6 offset (bytes) 0 flags [none] length: 52 10.0.0.2 > 10.0.0.1) ns3::TcpHeader (9 > 49153 [ACK] Seq=1 Ack=1026 Win=32634 ns3::TcpOptionTS(10;0) ns3::TcpOptionEnd(EOL))
r 0.010848 /NodeList/0/DeviceList/1/$ns3::PointToPointNetDevice/MacRx ns3::PppHeader (Point-to-Point Protocol: IP (0x0021)) ns3::Ipv4Header (tos 0x0 DSCP Default ECN Not-ECT ttl 64 id 5 protocol 6 offset (bytes) 0 flags [none] length: 52 10.0.0.2 > 10.0.0.1) ns3::TcpHeader (9 > 49153 [ACK] Seq=1 Ack=537 Win=32634 ns3::TcpOptionTS(6;0) ns3::TcpOptionEnd(EOL))
- 0.01128 /NodeList/0/DeviceList/1/$ns3::PointToPointNetDevice/TxQueue/Dequeue ns3::PppHeader (Point-to-Point Protocol: IP (0x0021)) ns3::Ipv4Header (tos 0x0 DSCP Default ECN Not-ECT ttl 64 id 7 protocol 6 offset (bytes) 0 flags [none] length: 52 10.0.0.1 > 10.0.0.2) ns3::TcpHeader (9 > 49153 [ACK] Seq=1 Ack=1026 Win=32634 ns3::TcpOptionTS(10;0) ns3::TcpOptionEnd(EOL))
r 0.01128 /NodeList/1/DeviceList/1/$ns3::PointToPointNetDevice/MacRx ns3::PppHeader (Point-to-Point Protocol: IP (0x0021)) ns3::Ipv4Header (tos 0x0 DSCP Default ECN Not-ECT ttl 64 id 6 protocol 6 offset (bytes) 0 flags [none] length: 52 10.0.0.1 > 10.0.0.2) ns3::TcpHeader (9 > 49153 [ACK] Seq=1 Ack=1026 Win=32634 ns3::TcpOptionTS(10;0) ns3::TcpOptionEnd(EOL))
- 0.01128 /NodeList/1/DeviceList/1/$ns3::PointToPointNetDevice/TxQueue/Dequeue ns3::PppHeader (Point-to-Point Protocol: IP (0x0021)) ns3::Ipv4Header (tos 0x0 DSCP Default ECN Not-ECT ttl 64 id 7 protocol 6 offset (bytes) 0 flags [none] length: 52 10.0.0.2 > 10.0.0.1) ns3::TcpHeader (9 > 49153 [ACK] Seq=1 Ack=1026 Win=32634 ns3::TcpOptionTS(10;0) ns3::TcpOptionEnd(EOL))
r 0.01128 /NodeList/0/DeviceList/1/$ns3::PointToPointNetDevice/MacRx ns3::PppHeader (Point-to-Point Protocol: IP (0x0021)) ns3::Ipv4Header (tos 0x0 DSCP Default ECN Not-ECT ttl 64 id 6 protocol 6 offset (bytes) 0 flags [none] length: 52 10.0.0.2 > 10.0.0.1) ns3::TcpHeader (9 > 49153 [ACK] Seq=1 Ack=1026 Win=32634 ns3::TcpOptionTS(10;0) ns3::TcpOptionEnd(EOL))
r 0.011712 /NodeList/1/DeviceList/1/$ns3::PointToPointNetDevice/MacRx ns3::PppHeader (Point-to-Point Protocol: IP (0x0021)) ns3::Ipv4Header (tos 0x0 DSCP Default ECN Not-ECT ttl 64 id 7 protocol 6 offset (bytes) 0 flags [none] length: 52 10.0.0.1 > 10.0.0.2) ns3::TcpHeader (9 > 49153 [ACK] Seq=1 Ack=1026 Win=32634 ns3::TcpOptionTS(10;0) ns3::TcpOptionEnd(EOL))
r 0.011712 /NodeList/0/DeviceList/1/$ns3::PointToPointNetDevice/MacRx ns3::PppHeader (Point-to-Point Protocol: IP (0x0021)) ns3::Ipv4Header (tos 0x0 DSCP Default ECN Not-ECT ttl 64 id 7 protocol 6 offset (bytes) 0 flags [none] length: 52 10.0.0.2 > 10.0.0.1) ns3::TcpHeader (9 > 49153 [ACK] Seq=1 Ack=1026 Win=32634 ns3::TcpOptionTS(10;0) ns3::TcpOptionEnd(EOL))
